version 2
run General-0-20131105-23:21:11-4448
attr configname General
attr datetime 20131105-23:21:11
attr experiment General
attr inifile omnetpp.ini
attr iterationvars ""
attr iterationvars2 $repetition=0
attr measurement ""
attr network ""
attr processid 4448
attr repetition 0
attr replication #0
attr resultdir results
attr runnumber 0
attr seedset 0

vector 0  SimulationNetwork.newNode  ""  ETV
vector 1  SimulationNetwork.BS  ""  ETV
vector 2  SimulationNetwork.newNode2  ""  ETV
vector 3  SimulationNetwork.newNode3  ""  ETV
vector 4  SimulationNetwork.newNode4  ""  ETV
vector 5  SimulationNetwork.MainClusterHead  ""  ETV
vector 6  SimulationNetwork.newNode5  ""  ETV
3	12	0	18564852
3	12	0	0
3	13	0	18564852
3	13	0	0
3	15	0	18564852
3	15	0	0
6	29	0	18567722
6	29	0	1250067
6	30	0	18568268
6	30	0	1250067
vector 7  SimulationNetwork.newNode8  ""  ETV
vector 8  SimulationNetwork.Node10  ""  ETV
vector 9  SimulationNetwork.Node11  ""  ETV
vector 10  SimulationNetwork.Node12  ""  ETV
vector 11  SimulationNetwork.ClusterHead5  ""  ETV
vector 12  SimulationNetwork.Node13  ""  ETV
vector 13  SimulationNetwork.Node14  ""  ETV
vector 14  SimulationNetwork.Node15  ""  ETV
vector 15  SimulationNetwork.Node16  ""  ETV
vector 16  SimulationNetwork.Node17  ""  ETV
vector 17  SimulationNetwork.Node18  ""  ETV
15	129	0	18574134
15	129	0	0
15	133	0	18574134
15	133	0	0
vector 18  SimulationNetwork.Member16  ""  ETV
16	137	0	18574134
16	137	0	112
16	141	0	18574134
16	141	0	112
18	153	0	18574477
18	153	0	0
vector 19  SimulationNetwork.Member17  ""  ETV
17	145	0	18574134
17	145	0	112
17	149	0	18574446
17	149	0	112
19	157	0	18574508
19	157	0	112
vector 20  SimulationNetwork.Member18  ""  ETV
9	87	0	18573479
9	87	0	112
9	91	0	18573479
9	91	0	112
20	161	0	18574555
20	161	0	112
0	1	0	18563011
0	1	0	0
0	3	0	18563728
0	3	0	0
0	5	0	18564493
0	5	0	0
0	48	0	18570437
0	48	0	0
0	49	0	18570515
0	49	0	0
0	50	0	18570608
0	50	0	0
0	53	0	18571076
0	53	0	0
0	54	0	18571185
0	54	0	0
0	55	0	18571201
0	55	0	0
0	56	0	18571497
0	56	0	0
0	84	0	18573479
0	84	0	0
0	86	0	18573479
0	86	0	0
0	88	0	18573479
0	88	0	0
0	90	0	18573479
0	90	0	0
0	162	0	18574555
0	162	0	0
1	2	0	18563385
1	2	0	0
1	4	0	18564493
1	4	0	0
1	6	0	18564493
1	6	0	0
1	9	0	18564852
1	9	0	0
1	11	0	18564852
1	11	0	0
1	14	0	18564852
1	14	0	0
1	16	0	18564852
1	16	0	0
1	19	0	18564852
1	19	0	0
1	20	0	18564852
1	20	0	0
1	25	0	18567192
1	25	0	0
1	26	0	18567192
1	26	0	0
1	33	0	18568268
1	33	0	0
1	34	0	18568268
1	34	0	0
1	38	0	18568783
1	38	0	0
1	39	0	18569313
1	39	0	0
1	46	0	18569844
1	46	0	0
1	47	0	18570281
1	47	0	0
1	51	0	18570608
1	51	0	0
1	52	0	18570905
1	52	0	0
1	58	0	18571575
1	58	0	0
1	61	0	18572106
1	61	0	0
1	66	0	18572496
1	66	0	0
1	67	0	18573026
1	67	0	0
1	74	0	18573479
1	74	0	0
1	75	0	18573479
1	75	0	0
1	85	0	18573479
1	85	0	0
1	89	0	18573479
1	89	0	0
1	93	0	18573479
1	93	0	0
1	97	0	18573791
1	97	0	0
1	111	0	18574009
1	111	0	0
1	115	0	18574056
1	115	0	0
1	119	0	18574103
1	119	0	0
1	123	0	18574134
1	123	0	0
1	127	0	18574134
1	127	0	0
1	131	0	18574134
1	131	0	0
1	135	0	18574134
1	135	0	0
1	139	0	18574134
1	139	0	0
1	143	0	18574134
1	143	0	0
1	147	0	18574134
1	147	0	0
1	151	0	18574461
1	151	0	0
1	155	0	18574508
1	155	0	0
1	159	0	18574555
1	159	0	0
2	7	0	18564852
2	7	0	0
2	8	0	18564852
2	8	0	0
2	10	0	18564852
2	10	0	0
2	17	0	18564852
2	17	0	0
2	23	0	18566661
2	23	0	0
2	27	0	18567192
2	27	0	0
2	28	0	18567722
2	28	0	0
2	31	0	18568268
2	31	0	0
2	59	0	18571591
2	59	0	0
2	60	0	18571591
2	60	0	0
2	62	0	18572262
2	62	0	0
2	63	0	18572496
2	63	0	0
2	118	0	18574103
2	118	0	0
2	120	0	18574118
2	120	0	0
2	122	0	18574134
2	122	0	0
2	124	0	18574134
2	124	0	0
2	126	0	18574134
2	126	0	0
2	128	0	18574134
2	128	0	0
2	130	0	18574134
2	130	0	0
2	132	0	18574134
2	132	0	0
2	134	0	18574134
2	134	0	0
2	136	0	18574134
2	136	0	0
2	138	0	18574134
2	138	0	0
2	140	0	18574134
2	140	0	0
2	150	0	18574446
2	150	0	0
2	152	0	18574477
2	152	0	0
2	154	0	18574477
2	154	0	0
2	156	0	18574508
2	156	0	0
4	18	0	18564852
4	18	0	9737881
4	21	0	18566661
4	21	0	9737881
4	22	0	18566661
4	22	0	9737881
4	35	0	18568783
4	35	0	9737881
4	36	0	18568783
4	36	0	9737881
4	37	0	18568783
4	37	0	9737881
4	40	0	18569313
4	40	0	9737881
4	41	0	18569313
4	41	0	9737881
4	42	0	18569313
4	42	0	9737881
4	43	0	18569844
4	43	0	9737881
4	68	0	18573026
4	68	0	9737881
4	69	0	18573026
4	69	0	9737881
4	76	0	18573479
4	76	0	9737881
4	77	0	18573479
4	77	0	9737881
4	92	0	18573479
4	92	0	9737881
4	94	0	18573479
4	94	0	9737881
4	96	0	18573791
4	96	0	9737881
4	98	0	18573791
4	98	0	9737881
4	110	0	18573993
4	110	0	9737881
4	112	0	18574025
4	112	0	9737881
4	114	0	18574040
4	114	0	9737881
4	116	0	18574071
4	116	0	9737881
4	142	0	18574134
4	142	0	9737881
4	144	0	18574134
4	144	0	9737881
4	146	0	18574134
4	146	0	9737881
4	148	0	18574134
4	148	0	9737881
4	158	0	18574524
4	158	0	9737881
4	160	0	18574555
4	160	0	9737881
5	24	0	18566661
5	24	0	112
5	32	0	18568268
5	32	0	112
5	44	0	18569844
5	44	0	112
5	45	0	18569844
5	45	0	112
5	57	0	18571497
5	57	0	112
5	64	0	18572496
5	64	0	112
5	65	0	18572496
5	65	0	112
5	72	0	18573479
5	72	0	112
5	73	0	18573479
5	73	0	112
5	79	0	18573479
5	79	0	112
5	80	0	18573479
5	80	0	112
5	82	0	18573479
5	82	0	112
5	83	0	18573479
5	83	0	112
5	100	0	18573791
5	100	0	112
5	102	0	18573884
5	102	0	112
5	104	0	18573915
5	104	0	112
5	105	0	18573931
5	105	0	112
5	107	0	18573947
5	107	0	112
5	108	0	18573978
5	108	0	112
7	70	0	18573479
7	70	0	12172221
7	71	0	18573479
7	71	0	12172221
7	78	0	18573479
7	78	0	12172221
8	81	0	18573479
8	81	0	12172221
10	95	0	18573479
10	95	0	0
10	99	0	18573791
10	99	0	0
11	101	0	18573791
11	101	0	1250067
12	103	0	18573884
12	103	0	112
12	106	0	18573947
12	106	0	112
12	109	0	18573978
12	109	0	112
13	113	0	18574025
13	113	0	0
13	117	0	18574071
13	117	0	0
14	121	0	18574118
14	121	0	0
14	125	0	18574134
14	125	0	0
